+ 2.00702 /NodeList/0/DeviceList/0/$ns3::CsmaNetDevice/TxQueue/Enqueue ns3::EthernetHeader ( length/type=0x800, source=00:00:00:00:00:01, destination=00:00:00:00:00:05) ns3::Ipv4Header (tos 0x0 DSCP Default ECN Not-ECT ttl 64 id 0 protocol 17 offset (bytes) 0 flags [MF] length: 1500 10.1.2.1 > 10.1.2.5) ns3::UdpHeader (length: 16392 49153 > 9) Payload Fragment [0:1472] ns3::EthernetTrailer (fcs=0)
- 2.00702 /NodeList/0/DeviceList/0/$ns3::CsmaNetDevice/TxQueue/Dequeue ns3::EthernetHeader ( length/type=0x800, source=00:00:00:00:00:01, destination=00:00:00:00:00:05) ns3::Ipv4Header (tos 0x0 DSCP Default ECN Not-ECT ttl 64 id 0 protocol 17 offset (bytes) 0 flags [MF] length: 1500 10.1.2.1 > 10.1.2.5) ns3::UdpHeader (length: 16392 49153 > 9) Payload Fragment [0:1472] ns3::EthernetTrailer (fcs=0)
r 2.02117 /NodeList/4/DeviceList/0/$ns3::CsmaNetDevice/MacRx ns3::EthernetHeader ( length/type=0x800, source=00:00:00:00:00:01, destination=00:00:00:00:00:05) ns3::Ipv4Header (tos 0x0 DSCP Default ECN Not-ECT ttl 64 id 0 protocol 17 offset (bytes) 0 flags [MF] length: 1500 10.1.2.1 > 10.1.2.5) ns3::UdpHeader (length: 16392 49153 > 9) Payload Fragment [0:1472] ns3::EthernetTrailer (fcs=0)
+ 2.02623 /NodeList/1/DeviceList/0/$ns3::CsmaNetDevice/TxQueue/Enqueue ns3::EthernetHeader ( length/type=0x800, source=00:00:00:00:00:02, destination=00:00:00:00:00:06) ns3::Ipv4Header (tos 0x0 DSCP Default ECN Not-ECT ttl 64 id 0 protocol 17 offset (bytes) 0 flags [MF] length: 1500 10.1.2.2 > 10.1.2.6) ns3::UdpHeader (length: 16392 49153 > 9) Payload Fragment [0:1472] ns3::EthernetTrailer (fcs=0)
- 2.02623 /NodeList/1/DeviceList/0/$ns3::CsmaNetDevice/TxQueue/Dequeue ns3::EthernetHeader ( length/type=0x800, source=00:00:00:00:00:02, destination=00:00:00:00:00:06) ns3::Ipv4Header (tos 0x0 DSCP Default ECN Not-ECT ttl 64 id 0 protocol 17 offset (bytes) 0 flags [MF] length: 1500 10.1.2.2 > 10.1.2.6) ns3::UdpHeader (length: 16392 49153 > 9) Payload Fragment [0:1472] ns3::EthernetTrailer (fcs=0)
r 2.04038 /NodeList/5/DeviceList/0/$ns3::CsmaNetDevice/MacRx ns3::EthernetHeader ( length/type=0x800, source=00:00:00:00:00:02, destination=00:00:00:00:00:06) ns3::Ipv4Header (tos 0x0 DSCP Default ECN Not-ECT ttl 64 id 0 protocol 17 offset (bytes) 0 flags [MF] length: 1500 10.1.2.2 > 10.1.2.6) ns3::UdpHeader (length: 16392 49153 > 9) Payload Fragment [0:1472] ns3::EthernetTrailer (fcs=0)
+ 2.04553 /NodeList/7/DeviceList/0/$ns3::CsmaNetDevice/TxQueue/Enqueue ns3::EthernetHeader ( length/type=0x800, source=00:00:00:00:00:08, destination=00:00:00:00:00:04) ns3::Ipv4Header (tos 0x0 DSCP Default ECN Not-ECT ttl 64 id 0 protocol 17 offset (bytes) 0 flags [MF] length: 1500 10.1.2.8 > 10.1.2.4) ns3::UdpHeader (length: 16392 49153 > 9) Payload Fragment [0:1472] ns3::EthernetTrailer (fcs=0)
- 2.04553 /NodeList/7/DeviceList/0/$ns3::CsmaNetDevice/TxQueue/Dequeue ns3::EthernetHeader ( length/type=0x800, source=00:00:00:00:00:08, destination=00:00:00:00:00:04) ns3::Ipv4Header (tos 0x0 DSCP Default ECN Not-ECT ttl 64 id 0 protocol 17 offset (bytes) 0 flags [MF] length: 1500 10.1.2.8 > 10.1.2.4) ns3::UdpHeader (length: 16392 49153 > 9) Payload Fragment [0:1472] ns3::EthernetTrailer (fcs=0)
r 2.05968 /NodeList/3/DeviceList/0/$ns3::CsmaNetDevice/MacRx ns3::EthernetHeader ( length/type=0x800, source=00:00:00:00:00:08, destination=00:00:00:00:00:04) ns3::Ipv4Header (tos 0x0 DSCP Default ECN Not-ECT ttl 64 id 0 protocol 17 offset (bytes) 0 flags [MF] length: 1500 10.1.2.8 > 10.1.2.4) ns3::UdpHeader (length: 16392 49153 > 9) Payload Fragment [0:1472] ns3::EthernetTrailer (fcs=0)
+ 2.0931 /NodeList/6/DeviceList/0/$ns3::CsmaNetDevice/TxQueue/Enqueue ns3::EthernetHeader ( length/type=0x800, source=00:00:00:00:00:07, destination=00:00:00:00:00:03) ns3::Ipv4Header (tos 0x0 DSCP Default ECN Not-ECT ttl 64 id 0 protocol 17 offset (bytes) 0 flags [MF] length: 1500 10.1.2.7 > 10.1.2.3) ns3::UdpHeader (length: 16392 49153 > 9) Payload Fragment [0:1472] ns3::EthernetTrailer (fcs=0)
- 2.0931 /NodeList/6/DeviceList/0/$ns3::CsmaNetDevice/TxQueue/Dequeue ns3::EthernetHeader ( length/type=0x800, source=00:00:00:00:00:07, destination=00:00:00:00:00:03) ns3::Ipv4Header (tos 0x0 DSCP Default ECN Not-ECT ttl 64 id 0 protocol 17 offset (bytes) 0 flags [MF] length: 1500 10.1.2.7 > 10.1.2.3) ns3::UdpHeader (length: 16392 49153 > 9) Payload Fragment [0:1472] ns3::EthernetTrailer (fcs=0)
r 2.10724 /NodeList/2/DeviceList/0/$ns3::CsmaNetDevice/MacRx ns3::EthernetHeader ( length/type=0x800, source=00:00:00:00:00:07, destination=00:00:00:00:00:03) ns3::Ipv4Header (tos 0x0 DSCP Default ECN Not-ECT ttl 64 id 0 protocol 17 offset (bytes) 0 flags [MF] length: 1500 10.1.2.7 > 10.1.2.3) ns3::UdpHeader (length: 16392 49153 > 9) Payload Fragment [0:1472] ns3::EthernetTrailer (fcs=0)
+ 2.125 /NodeList/0/DeviceList/0/$ns3::CsmaNetDevice/TxQueue/Enqueue ns3::EthernetHeader ( length/type=0x800, source=00:00:00:00:00:01, destination=00:00:00:00:00:05) ns3::Ipv4Header (tos 0x0 DSCP Default ECN Not-ECT ttl 64 id 1 protocol 17 offset (bytes) 0 flags [MF] length: 1500 10.1.2.1 > 10.1.2.5) ns3::UdpHeader (length: 16392 49153 > 9) Payload Fragment [0:1472] ns3::EthernetTrailer (fcs=0)
+ 2.125 /NodeList/1/DeviceList/0/$ns3::CsmaNetDevice/TxQueue/Enqueue ns3::EthernetHeader ( length/type=0x800, source=00:00:00:00:00:02, destination=00:00:00:00:00:06) ns3::Ipv4Header (tos 0x0 DSCP Default ECN Not-ECT ttl 64 id 1 protocol 17 offset (bytes) 0 flags [MF] length: 1500 10.1.2.2 > 10.1.2.6) ns3::UdpHeader (length: 16392 49153 > 9) Payload Fragment [0:1472] ns3::EthernetTrailer (fcs=0)
- 2.125 /NodeList/1/DeviceList/0/$ns3::CsmaNetDevice/TxQueue/Dequeue ns3::EthernetHeader ( length/type=0x800, source=00:00:00:00:00:02, destination=00:00:00:00:00:06) ns3::Ipv4Header (tos 0x0 DSCP Default ECN Not-ECT ttl 64 id 1 protocol 17 offset (bytes) 0 flags [MF] length: 1500 10.1.2.2 > 10.1.2.6) ns3::UdpHeader (length: 16392 49153 > 9) Payload Fragment [0:1472] ns3::EthernetTrailer (fcs=0)
+ 2.125 /NodeList/6/DeviceList/0/$ns3::CsmaNetDevice/TxQueue/Enqueue ns3::EthernetHeader ( length/type=0x800, source=00:00:00:00:00:07, destination=00:00:00:00:00:03) ns3::Ipv4Header (tos 0x0 DSCP Default ECN Not-ECT ttl 64 id 1 protocol 17 offset (bytes) 0 flags [MF] length: 1500 10.1.2.7 > 10.1.2.3) ns3::UdpHeader (length: 16392 49153 > 9) Payload Fragment [0:1472] ns3::EthernetTrailer (fcs=0)
+ 2.125 /NodeList/7/DeviceList/0/$ns3::CsmaNetDevice/TxQueue/Enqueue ns3::EthernetHeader ( length/type=0x800, source=00:00:00:00:00:08, destination=00:00:00:00:00:04) ns3::Ipv4Header (tos 0x0 DSCP Default ECN Not-ECT ttl 64 id 1 protocol 17 offset (bytes) 0 flags [MF] length: 1500 10.1.2.8 > 10.1.2.4) ns3::UdpHeader (length: 16392 49153 > 9) Payload Fragment [0:1472] ns3::EthernetTrailer (fcs=0)
- 2.16231 /NodeList/6/DeviceList/0/$ns3::CsmaNetDevice/TxQueue/Dequeue ns3::EthernetHeader ( length/type=0x800, source=00:00:00:00:00:07, destination=00:00:00:00:00:03) ns3::Ipv4Header (tos 0x0 DSCP Default ECN Not-ECT ttl 64 id 1 protocol 17 offset (bytes) 0 flags [MF] length: 1500 10.1.2.7 > 10.1.2.3) ns3::UdpHeader (length: 16392 49153 > 9) Payload Fragment [0:1472] ns3::EthernetTrailer (fcs=0)
r 2.17849 /NodeList/5/DeviceList/0/$ns3::CsmaNetDevice/MacRx ns3::EthernetHeader ( length/type=0x800, source=00:00:00:00:00:02, destination=00:00:00:00:00:06) ns3::Ipv4Header (tos 0x0 DSCP Default ECN Not-ECT ttl 64 id 1 protocol 17 offset (bytes) 0 flags [MF] length: 1500 10.1.2.2 > 10.1.2.6) ns3::UdpHeader (length: 16392 49153 > 9) Payload Fragment [0:1472] ns3::EthernetTrailer (fcs=0)
r 2.19289 /NodeList/2/DeviceList/0/$ns3::CsmaNetDevice/MacRx ns3::EthernetHeader ( length/type=0x800, source=00:00:00:00:00:07, destination=00:00:00:00:00:03) ns3::Ipv4Header (tos 0x0 DSCP Default ECN Not-ECT ttl 64 id 1 protocol 17 offset (bytes) 0 flags [MF] length: 1500 10.1.2.7 > 10.1.2.3) ns3::UdpHeader (length: 16392 49153 > 9) Payload Fragment [0:1472] ns3::EthernetTrailer (fcs=0)
+ 2.25 /NodeList/0/DeviceList/0/$ns3::CsmaNetDevice/TxQueue/Enqueue ns3::EthernetHeader ( length/type=0x800, source=00:00:00:00:00:01, destination=00:00:00:00:00:05) ns3::Ipv4Header (tos 0x0 DSCP Default ECN Not-ECT ttl 64 id 2 protocol 17 offset (bytes) 0 flags [MF] length: 1500 10.1.2.1 > 10.1.2.5) ns3::UdpHeader (length: 16392 49153 > 9) Payload Fragment [0:1472] ns3::EthernetTrailer (fcs=0)
+ 2.25 /NodeList/1/DeviceList/0/$ns3::CsmaNetDevice/TxQueue/Enqueue ns3::EthernetHeader ( length/type=0x800, source=00:00:00:00:00:02, destination=00:00:00:00:00:06) ns3::Ipv4Header (tos 0x0 DSCP Default ECN Not-ECT ttl 64 id 2 protocol 17 offset (bytes) 0 flags [MF] length: 1500 10.1.2.2 > 10.1.2.6) ns3::UdpHeader (length: 16392 49153 > 9) Payload Fragment [0:1472] ns3::EthernetTrailer (fcs=0)
+ 2.25 /NodeList/6/DeviceList/0/$ns3::CsmaNetDevice/TxQueue/Enqueue ns3::EthernetHeader ( length/type=0x800, source=00:00:00:00:00:07, destination=00:00:00:00:00:03) ns3::Ipv4Header (tos 0x0 DSCP Default ECN Not-ECT ttl 64 id 2 protocol 17 offset (bytes) 0 flags [MF] length: 1500 10.1.2.7 > 10.1.2.3) ns3::UdpHeader (length: 16392 49153 > 9) Payload Fragment [0:1472] ns3::EthernetTrailer (fcs=0)
+ 2.25 /NodeList/7/DeviceList/0/$ns3::CsmaNetDevice/TxQueue/Enqueue ns3::EthernetHeader ( length/type=0x800, source=00:00:00:00:00:08, destination=00:00:00:00:00:04) ns3::Ipv4Header (tos 0x0 DSCP Default ECN Not-ECT ttl 64 id 2 protocol 17 offset (bytes) 0 flags [MF] length: 1500 10.1.2.8 > 10.1.2.4) ns3::UdpHeader (length: 16392 49153 > 9) Payload Fragment [0:1472] ns3::EthernetTrailer (fcs=0)
- 2.27643 /NodeList/7/DeviceList/0/$ns3::CsmaNetDevice/TxQueue/Dequeue ns3::EthernetHeader ( length/type=0x800, source=00:00:00:00:00:08, destination=00:00:00:00:00:04) ns3::Ipv4Header (tos 0x0 DSCP Default ECN Not-ECT ttl 64 id 1 protocol 17 offset (bytes) 0 flags [MF] length: 1500 10.1.2.8 > 10.1.2.4) ns3::UdpHeader (length: 16392 49153 > 9) Payload Fragment [0:1472] ns3::EthernetTrailer (fcs=0)
- 2.31899 /NodeList/0/DeviceList/0/$ns3::CsmaNetDevice/TxQueue/Dequeue ns3::EthernetHeader ( length/type=0x800, source=00:00:00:00:00:01, destination=00:00:00:00:00:05) ns3::Ipv4Header (tos 0x0 DSCP Default ECN Not-ECT ttl 64 id 1 protocol 17 offset (bytes) 0 flags [MF] length: 1500 10.1.2.1 > 10.1.2.5) ns3::UdpHeader (length: 16392 49153 > 9) Payload Fragment [0:1472] ns3::EthernetTrailer (fcs=0)
r 2.33516 /NodeList/3/DeviceList/0/$ns3::CsmaNetDevice/MacRx ns3::EthernetHeader ( length/type=0x800, source=00:00:00:00:00:08, destination=00:00:00:00:00:04) ns3::Ipv4Header (tos 0x0 DSCP Default ECN Not-ECT ttl 64 id 1 protocol 17 offset (bytes) 0 flags [MF] length: 1500 10.1.2.8 > 10.1.2.4) ns3::UdpHeader (length: 16392 49153 > 9) Payload Fragment [0:1472] ns3::EthernetTrailer (fcs=0)
r 2.34961 /NodeList/4/DeviceList/0/$ns3::CsmaNetDevice/MacRx ns3::EthernetHeader ( length/type=0x800, source=00:00:00:00:00:01, destination=00:00:00:00:00:05) ns3::Ipv4Header (tos 0x0 DSCP Default ECN Not-ECT ttl 64 id 1 protocol 17 offset (bytes) 0 flags [MF] length: 1500 10.1.2.1 > 10.1.2.5) ns3::UdpHeader (length: 16392 49153 > 9) Payload Fragment [0:1472] ns3::EthernetTrailer (fcs=0)
+ 2.375 /NodeList/0/DeviceList/0/$ns3::CsmaNetDevice/TxQueue/Enqueue ns3::EthernetHeader ( length/type=0x800, source=00:00:00:00:00:01, destination=00:00:00:00:00:05) ns3::Ipv4Header (tos 0x0 DSCP Default ECN Not-ECT ttl 64 id 3 protocol 17 offset (bytes) 0 flags [MF] length: 1500 10.1.2.1 > 10.1.2.5) ns3::UdpHeader (length: 16392 49153 > 9) Payload Fragment [0:1472] ns3::EthernetTrailer (fcs=0)
+ 2.375 /NodeList/1/DeviceList/0/$ns3::CsmaNetDevice/TxQueue/Enqueue ns3::EthernetHeader ( length/type=0x800, source=00:00:00:00:00:02, destination=00:00:00:00:00:06) ns3::Ipv4Header (tos 0x0 DSCP Default ECN Not-ECT ttl 64 id 3 protocol 17 offset (bytes) 0 flags [MF] length: 1500 10.1.2.2 > 10.1.2.6) ns3::UdpHeader (length: 16392 49153 > 9) Payload Fragment [0:1472] ns3::EthernetTrailer (fcs=0)
+ 2.375 /NodeList/6/DeviceList/0/$ns3::CsmaNetDevice/TxQueue/Enqueue ns3::EthernetHeader ( length/type=0x800, source=00:00:00:00:00:07, destination=00:00:00:00:00:03) ns3::Ipv4Header (tos 0x0 DSCP Default ECN Not-ECT ttl 64 id 3 protocol 17 offset (bytes) 0 flags [MF] length: 1500 10.1.2.7 > 10.1.2.3) ns3::UdpHeader (length: 16392 49153 > 9) Payload Fragment [0:1472] ns3::EthernetTrailer (fcs=0)
+ 2.375 /NodeList/7/DeviceList/0/$ns3::CsmaNetDevice/TxQueue/Enqueue ns3::EthernetHeader ( length/type=0x800, source=00:00:00:00:00:08, destination=00:00:00:00:00:04) ns3::Ipv4Header (tos 0x0 DSCP Default ECN Not-ECT ttl 64 id 3 protocol 17 offset (bytes) 0 flags [MF] length: 1500 10.1.2.8 > 10.1.2.4) ns3::UdpHeader (length: 16392 49153 > 9) Payload Fragment [0:1472] ns3::EthernetTrailer (fcs=0)
+ 2.5 /NodeList/0/DeviceList/0/$ns3::CsmaNetDevice/TxQueue/Enqueue ns3::EthernetHeader ( length/type=0x800, source=00:00:00:00:00:01, destination=00:00:00:00:00:05) ns3::Ipv4Header (tos 0x0 DSCP Default ECN Not-ECT ttl 64 id 4 protocol 17 offset (bytes) 0 flags [MF] length: 1500 10.1.2.1 > 10.1.2.5) ns3::UdpHeader (length: 16392 49153 > 9) Payload Fragment [0:1472] ns3::EthernetTrailer (fcs=0)
+ 2.5 /NodeList/1/DeviceList/0/$ns3::CsmaNetDevice/TxQueue/Enqueue ns3::EthernetHeader ( length/type=0x800, source=00:00:00:00:00:02, destination=00:00:00:00:00:06) ns3::Ipv4Header (tos 0x0 DSCP Default ECN Not-ECT ttl 64 id 4 protocol 17 offset (bytes) 0 flags [MF] length: 1500 10.1.2.2 > 10.1.2.6) ns3::UdpHeader (length: 16392 49153 > 9) Payload Fragment [0:1472] ns3::EthernetTrailer (fcs=0)
+ 2.5 /NodeList/6/DeviceList/0/$ns3::CsmaNetDevice/TxQueue/Enqueue ns3::EthernetHeader ( length/type=0x800, source=00:00:00:00:00:07, destination=00:00:00:00:00:03) ns3::Ipv4Header (tos 0x0 DSCP Default ECN Not-ECT ttl 64 id 4 protocol 17 offset (bytes) 0 flags [MF] length: 1500 10.1.2.7 > 10.1.2.3) ns3::UdpHeader (length: 16392 49153 > 9) Payload Fragment [0:1472] ns3::EthernetTrailer (fcs=0)
+ 2.5 /NodeList/7/DeviceList/0/$ns3::CsmaNetDevice/TxQueue/Enqueue ns3::EthernetHeader ( length/type=0x800, source=00:00:00:00:00:08, destination=00:00:00:00:00:04) ns3::Ipv4Header (tos 0x0 DSCP Default ECN Not-ECT ttl 64 id 4 protocol 17 offset (bytes) 0 flags [MF] length: 1500 10.1.2.8 > 10.1.2.4) ns3::UdpHeader (length: 16392 49153 > 9) Payload Fragment [0:1472] ns3::EthernetTrailer (fcs=0)
- 2.6074 /NodeList/6/DeviceList/0/$ns3::CsmaNetDevice/TxQueue/Dequeue ns3::EthernetHeader ( length/type=0x800, source=00:00:00:00:00:07, destination=00:00:00:00:00:03) ns3::Ipv4Header (tos 0x0 DSCP Default ECN Not-ECT ttl 64 id 2 protocol 17 offset (bytes) 0 flags [MF] length: 1500 10.1.2.7 > 10.1.2.3) ns3::UdpHeader (length: 16392 49153 > 9) Payload Fragment [0:1472] ns3::EthernetTrailer (fcs=0)
+ 2.625 /NodeList/0/DeviceList/0/$ns3::CsmaNetDevice/TxQueue/Enqueue ns3::EthernetHeader ( length/type=0x800, source=00:00:00:00:00:01, destination=00:00:00:00:00:05) ns3::Ipv4Header (tos 0x0 DSCP Default ECN Not-ECT ttl 64 id 5 protocol 17 offset (bytes) 0 flags [MF] length: 1500 10.1.2.1 > 10.1.2.5) ns3::UdpHeader (length: 16392 49153 > 9) Payload Fragment [0:1472] ns3::EthernetTrailer (fcs=0)
+ 2.625 /NodeList/1/DeviceList/0/$ns3::CsmaNetDevice/TxQueue/Enqueue ns3::EthernetHeader ( length/type=0x800, source=00:00:00:00:00:02, destination=00:00:00:00:00:06) ns3::Ipv4Header (tos 0x0 DSCP Default ECN Not-ECT ttl 64 id 5 protocol 17 offset (bytes) 0 flags [MF] length: 1500 10.1.2.2 > 10.1.2.6) ns3::UdpHeader (length: 16392 49153 > 9) Payload Fragment [0:1472] ns3::EthernetTrailer (fcs=0)
+ 2.625 /NodeList/6/DeviceList/0/$ns3::CsmaNetDevice/TxQueue/Enqueue ns3::EthernetHeader ( length/type=0x800, source=00:00:00:00:00:07, destination=00:00:00:00:00:03) ns3::Ipv4Header (tos 0x0 DSCP Default ECN Not-ECT ttl 64 id 5 protocol 17 offset (bytes) 0 flags [MF] length: 1500 10.1.2.7 > 10.1.2.3) ns3::UdpHeader (length: 16392 49153 > 9) Payload Fragment [0:1472] ns3::EthernetTrailer (fcs=0)
+ 2.625 /NodeList/7/DeviceList/0/$ns3::CsmaNetDevice/TxQueue/Enqueue ns3::EthernetHeader ( length/type=0x800, source=00:00:00:00:00:08, destination=00:00:00:00:00:04) ns3::Ipv4Header (tos 0x0 DSCP Default ECN Not-ECT ttl 64 id 5 protocol 17 offset (bytes) 0 flags [MF] length: 1500 10.1.2.8 > 10.1.2.4) ns3::UdpHeader (length: 16392 49153 > 9) Payload Fragment [0:1472] ns3::EthernetTrailer (fcs=0)
r 2.6548 /NodeList/2/DeviceList/0/$ns3::CsmaNetDevice/MacRx ns3::EthernetHeader ( length/type=0x800, source=00:00:00:00:00:07, destination=00:00:00:00:00:03) ns3::Ipv4Header (tos 0x0 DSCP Default ECN Not-ECT ttl 64 id 2 protocol 17 offset (bytes) 0 flags [MF] length: 1500 10.1.2.7 > 10.1.2.3) ns3::UdpHeader (length: 16392 49153 > 9) Payload Fragment [0:1472] ns3::EthernetTrailer (fcs=0)
+ 2.75 /NodeList/0/DeviceList/0/$ns3::CsmaNetDevice/TxQueue/Enqueue ns3::EthernetHeader ( length/type=0x800, source=00:00:00:00:00:01, destination=00:00:00:00:00:05) ns3::Ipv4Header (tos 0x0 DSCP Default ECN Not-ECT ttl 64 id 6 protocol 17 offset (bytes) 0 flags [MF] length: 1500 10.1.2.1 > 10.1.2.5) ns3::UdpHeader (length: 16392 49153 > 9) Payload Fragment [0:1472] ns3::EthernetTrailer (fcs=0)
+ 2.75 /NodeList/1/DeviceList/0/$ns3::CsmaNetDevice/TxQueue/Enqueue ns3::EthernetHeader ( length/type=0x800, source=00:00:00:00:00:02, destination=00:00:00:00:00:06) ns3::Ipv4Header (tos 0x0 DSCP Default ECN Not-ECT ttl 64 id 6 protocol 17 offset (bytes) 0 flags [MF] length: 1500 10.1.2.2 > 10.1.2.6) ns3::UdpHeader (length: 16392 49153 > 9) Payload Fragment [0:1472] ns3::EthernetTrailer (fcs=0)
+ 2.75 /NodeList/6/DeviceList/0/$ns3::CsmaNetDevice/TxQueue/Enqueue ns3::EthernetHeader ( length/type=0x800, source=00:00:00:00:00:07, destination=00:00:00:00:00:03) ns3::Ipv4Header (tos 0x0 DSCP Default ECN Not-ECT ttl 64 id 6 protocol 17 offset (bytes) 0 flags [MF] length: 1500 10.1.2.7 > 10.1.2.3) ns3::UdpHeader (length: 16392 49153 > 9) Payload Fragment [0:1472] ns3::EthernetTrailer (fcs=0)
+ 2.75 /NodeList/7/DeviceList/0/$ns3::CsmaNetDevice/TxQueue/Enqueue ns3::EthernetHeader ( length/type=0x800, source=00:00:00:00:00:08, destination=00:00:00:00:00:04) ns3::Ipv4Header (tos 0x0 DSCP Default ECN Not-ECT ttl 64 id 6 protocol 17 offset (bytes) 0 flags [MF] length: 1500 10.1.2.8 > 10.1.2.4) ns3::UdpHeader (length: 16392 49153 > 9) Payload Fragment [0:1472] ns3::EthernetTrailer (fcs=0)
- 2.78433 /NodeList/1/DeviceList/0/$ns3::CsmaNetDevice/TxQueue/Dequeue ns3::EthernetHeader ( length/type=0x800, source=00:00:00:00:00:02, destination=00:00:00:00:00:06) ns3::Ipv4Header (tos 0x0 DSCP Default ECN Not-ECT ttl 64 id 2 protocol 17 offset (bytes) 0 flags [MF] length: 1500 10.1.2.2 > 10.1.2.6) ns3::UdpHeader (length: 16392 49153 > 9) Payload Fragment [0:1472] ns3::EthernetTrailer (fcs=0)
r 2.84611 /NodeList/5/DeviceList/0/$ns3::CsmaNetDevice/MacRx ns3::EthernetHeader ( length/type=0x800, source=00:00:00:00:00:02, destination=00:00:00:00:00:06) ns3::Ipv4Header (tos 0x0 DSCP Default ECN Not-ECT ttl 64 id 2 protocol 17 offset (bytes) 0 flags [MF] length: 1500 10.1.2.2 > 10.1.2.6) ns3::UdpHeader (length: 16392 49153 > 9) Payload Fragment [0:1472] ns3::EthernetTrailer (fcs=0)
- 2.84754 /NodeList/0/DeviceList/0/$ns3::CsmaNetDevice/TxQueue/Dequeue ns3::EthernetHeader ( length/type=0x800, source=00:00:00:00:00:01, destination=00:00:00:00:00:05) ns3::Ipv4Header (tos 0x0 DSCP Default ECN Not-ECT ttl 64 id 2 protocol 17 offset (bytes) 0 flags [MF] length: 1500 10.1.2.1 > 10.1.2.5) ns3::UdpHeader (length: 16392 49153 > 9) Payload Fragment [0:1472] ns3::EthernetTrailer (fcs=0)
+ 2.875 /NodeList/0/DeviceList/0/$ns3::CsmaNetDevice/TxQueue/Enqueue ns3::EthernetHeader ( length/type=0x800, source=00:00:00:00:00:01, destination=00:00:00:00:00:05) ns3::Ipv4Header (tos 0x0 DSCP Default ECN Not-ECT ttl 64 id 7 protocol 17 offset (bytes) 0 flags [MF] length: 1500 10.1.2.1 > 10.1.2.5) ns3::UdpHeader (length: 16392 49153 > 9) Payload Fragment [0:1472] ns3::EthernetTrailer (fcs=0)
+ 2.875 /NodeList/1/DeviceList/0/$ns3::CsmaNetDevice/TxQueue/Enqueue ns3::EthernetHeader ( length/type=0x800, source=00:00:00:00:00:02, destination=00:00:00:00:00:06) ns3::Ipv4Header (tos 0x0 DSCP Default ECN Not-ECT ttl 64 id 7 protocol 17 offset (bytes) 0 flags [MF] length: 1500 10.1.2.2 > 10.1.2.6) ns3::UdpHeader (length: 16392 49153 > 9) Payload Fragment [0:1472] ns3::EthernetTrailer (fcs=0)
+ 2.875 /NodeList/6/DeviceList/0/$ns3::CsmaNetDevice/TxQueue/Enqueue ns3::EthernetHeader ( length/type=0x800, source=00:00:00:00:00:07, destination=00:00:00:00:00:03) ns3::Ipv4Header (tos 0x0 DSCP Default ECN Not-ECT ttl 64 id 7 protocol 17 offset (bytes) 0 flags [MF] length: 1500 10.1.2.7 > 10.1.2.3) ns3::UdpHeader (length: 16392 49153 > 9) Payload Fragment [0:1472] ns3::EthernetTrailer (fcs=0)
+ 2.875 /NodeList/7/DeviceList/0/$ns3::CsmaNetDevice/TxQueue/Enqueue ns3::EthernetHeader ( length/type=0x800, source=00:00:00:00:00:08, destination=00:00:00:00:00:04) ns3::Ipv4Header (tos 0x0 DSCP Default ECN Not-ECT ttl 64 id 7 protocol 17 offset (bytes) 0 flags [MF] length: 1500 10.1.2.8 > 10.1.2.4) ns3::UdpHeader (length: 16392 49153 > 9) Payload Fragment [0:1472] ns3::EthernetTrailer (fcs=0)
r 2.87794 /NodeList/4/DeviceList/0/$ns3::CsmaNetDevice/MacRx ns3::EthernetHeader ( length/type=0x800, source=00:00:00:00:00:01, destination=00:00:00:00:00:05) ns3::Ipv4Header (tos 0x0 DSCP Default ECN Not-ECT ttl 64 id 2 protocol 17 offset (bytes) 0 flags [MF] length: 1500 10.1.2.1 > 10.1.2.5) ns3::UdpHeader (length: 16392 49153 > 9) Payload Fragment [0:1472] ns3::EthernetTrailer (fcs=0)
+ 3 /NodeList/0/DeviceList/0/$ns3::CsmaNetDevice/TxQueue/Enqueue ns3::EthernetHeader ( length/type=0x800, source=00:00:00:00:00:01, destination=00:00:00:00:00:05) ns3::Ipv4Header (tos 0x0 DSCP Default ECN Not-ECT ttl 64 id 8 protocol 17 offset (bytes) 0 flags [MF] length: 1500 10.1.2.1 > 10.1.2.5) ns3::UdpHeader (length: 16392 49153 > 9) Payload Fragment [0:1472] ns3::EthernetTrailer (fcs=0)
+ 3 /NodeList/1/DeviceList/0/$ns3::CsmaNetDevice/TxQueue/Enqueue ns3::EthernetHeader ( length/type=0x800, source=00:00:00:00:00:02, destination=00:00:00:00:00:06) ns3::Ipv4Header (tos 0x0 DSCP Default ECN Not-ECT ttl 64 id 8 protocol 17 offset (bytes) 0 flags [MF] length: 1500 10.1.2.2 > 10.1.2.6) ns3::UdpHeader (length: 16392 49153 > 9) Payload Fragment [0:1472] ns3::EthernetTrailer (fcs=0)
+ 3 /NodeList/6/DeviceList/0/$ns3::CsmaNetDevice/TxQueue/Enqueue ns3::EthernetHeader ( length/type=0x800, source=00:00:00:00:00:07, destination=00:00:00:00:00:03) ns3::Ipv4Header (tos 0x0 DSCP Default ECN Not-ECT ttl 64 id 8 protocol 17 offset (bytes) 0 flags [MF] length: 1500 10.1.2.7 > 10.1.2.3) ns3::UdpHeader (length: 16392 49153 > 9) Payload Fragment [0:1472] ns3::EthernetTrailer (fcs=0)
+ 3 /NodeList/7/DeviceList/0/$ns3::CsmaNetDevice/TxQueue/Enqueue ns3::EthernetHeader ( length/type=0x800, source=00:00:00:00:00:08, destination=00:00:00:00:00:04) ns3::Ipv4Header (tos 0x0 DSCP Default ECN Not-ECT ttl 64 id 8 protocol 17 offset (bytes) 0 flags [MF] length: 1500 10.1.2.8 > 10.1.2.4) ns3::UdpHeader (length: 16392 49153 > 9) Payload Fragment [0:1472] ns3::EthernetTrailer (fcs=0)
- 3.12402 /NodeList/6/DeviceList/0/$ns3::CsmaNetDevice/TxQueue/Dequeue ns3::EthernetHeader ( length/type=0x800, source=00:00:00:00:00:07, destination=00:00:00:00:00:03) ns3::Ipv4Header (tos 0x0 DSCP Default ECN Not-ECT ttl 64 id 3 protocol 17 offset (bytes) 0 flags [MF] length: 1500 10.1.2.7 > 10.1.2.3) ns3::UdpHeader (length: 16392 49153 > 9) Payload Fragment [0:1472] ns3::EthernetTrailer (fcs=0)
+ 3.125 /NodeList/0/DeviceList/0/$ns3::CsmaNetDevice/TxQueue/Enqueue ns3::EthernetHeader ( length/type=0x800, source=00:00:00:00:00:01, destination=00:00:00:00:00:05) ns3::Ipv4Header (tos 0x0 DSCP Default ECN Not-ECT ttl 64 id 9 protocol 17 offset (bytes) 0 flags [MF] length: 1500 10.1.2.1 > 10.1.2.5) ns3::UdpHeader (length: 16392 49153 > 9) Payload Fragment [0:1472] ns3::EthernetTrailer (fcs=0)
+ 3.125 /NodeList/1/DeviceList/0/$ns3::CsmaNetDevice/TxQueue/Enqueue ns3::EthernetHeader ( length/type=0x800, source=00:00:00:00:00:02, destination=00:00:00:00:00:06) ns3::Ipv4Header (tos 0x0 DSCP Default ECN Not-ECT ttl 64 id 9 protocol 17 offset (bytes) 0 flags [MF] length: 1500 10.1.2.2 > 10.1.2.6) ns3::UdpHeader (length: 16392 49153 > 9) Payload Fragment [0:1472] ns3::EthernetTrailer (fcs=0)
+ 3.125 /NodeList/6/DeviceList/0/$ns3::CsmaNetDevice/TxQueue/Enqueue ns3::EthernetHeader ( length/type=0x800, source=00:00:00:00:00:07, destination=00:00:00:00:00:03) ns3::Ipv4Header (tos 0x0 DSCP Default ECN Not-ECT ttl 64 id 9 protocol 17 offset (bytes) 0 flags [MF] length: 1500 10.1.2.7 > 10.1.2.3) ns3::UdpHeader (length: 16392 49153 > 9) Payload Fragment [0:1472] ns3::EthernetTrailer (fcs=0)
+ 3.125 /NodeList/7/DeviceList/0/$ns3::CsmaNetDevice/TxQueue/Enqueue ns3::EthernetHeader ( length/type=0x800, source=00:00:00:00:00:08, destination=00:00:00:00:00:04) ns3::Ipv4Header (tos 0x0 DSCP Default ECN Not-ECT ttl 64 id 9 protocol 17 offset (bytes) 0 flags [MF] length: 1500 10.1.2.8 > 10.1.2.4) ns3::UdpHeader (length: 16392 49153 > 9) Payload Fragment [0:1472] ns3::EthernetTrailer (fcs=0)
r 3.14014 /NodeList/2/DeviceList/0/$ns3::CsmaNetDevice/MacRx ns3::EthernetHeader ( length/type=0x800, source=00:00:00:00:00:07, destination=00:00:00:00:00:03) ns3::Ipv4Header (tos 0x0 DSCP Default ECN Not-ECT ttl 64 id 3 protocol 17 offset (bytes) 0 flags [MF] length: 1500 10.1.2.7 > 10.1.2.3) ns3::UdpHeader (length: 16392 49153 > 9) Payload Fragment [0:1472] ns3::EthernetTrailer (fcs=0)
- 3.241 /NodeList/7/DeviceList/0/$ns3::CsmaNetDevice/TxQueue/Dequeue ns3::EthernetHeader ( length/type=0x800, source=00:00:00:00:00:08, destination=00:00:00:00:00:04) ns3::Ipv4Header (tos 0x0 DSCP Default ECN Not-ECT ttl 64 id 2 protocol 17 offset (bytes) 0 flags [MF] length: 1500 10.1.2.8 > 10.1.2.4) ns3::UdpHeader (length: 16392 49153 > 9) Payload Fragment [0:1472] ns3::EthernetTrailer (fcs=0)
+ 3.25 /NodeList/0/DeviceList/0/$ns3::CsmaNetDevice/TxQueue/Enqueue ns3::EthernetHeader ( length/type=0x800, source=00:00:00:00:00:01, destination=00:00:00:00:00:05) ns3::Ipv4Header (tos 0x0 DSCP Default ECN Not-ECT ttl 64 id 10 protocol 17 offset (bytes) 0 flags [MF] length: 1500 10.1.2.1 > 10.1.2.5) ns3::UdpHeader (length: 16392 49153 > 9) Payload Fragment [0:1472] ns3::EthernetTrailer (fcs=0)
+ 3.25 /NodeList/1/DeviceList/0/$ns3::CsmaNetDevice/TxQueue/Enqueue ns3::EthernetHeader ( length/type=0x800, source=00:00:00:00:00:02, destination=00:00:00:00:00:06) ns3::Ipv4Header (tos 0x0 DSCP Default ECN Not-ECT ttl 64 id 10 protocol 17 offset (bytes) 0 flags [MF] length: 1500 10.1.2.2 > 10.1.2.6) ns3::UdpHeader (length: 16392 49153 > 9) Payload Fragment [0:1472] ns3::EthernetTrailer (fcs=0)
+ 3.25 /NodeList/6/DeviceList/0/$ns3::CsmaNetDevice/TxQueue/Enqueue ns3::EthernetHeader ( length/type=0x800, source=00:00:00:00:00:07, destination=00:00:00:00:00:03) ns3::Ipv4Header (tos 0x0 DSCP Default ECN Not-ECT ttl 64 id 10 protocol 17 offset (bytes) 0 flags [MF] length: 1500 10.1.2.7 > 10.1.2.3) ns3::UdpHeader (length: 16392 49153 > 9) Payload Fragment [0:1472] ns3::EthernetTrailer (fcs=0)
+ 3.25 /NodeList/7/DeviceList/0/$ns3::CsmaNetDevice/TxQueue/Enqueue ns3::EthernetHeader ( length/type=0x800, source=00:00:00:00:00:08, destination=00:00:00:00:00:04) ns3::Ipv4Header (tos 0x0 DSCP Default ECN Not-ECT ttl 64 id 10 protocol 17 offset (bytes) 0 flags [MF] length: 1500 10.1.2.8 > 10.1.2.4) ns3::UdpHeader (length: 16392 49153 > 9) Payload Fragment [0:1472] ns3::EthernetTrailer (fcs=0)
r 3.34243 /NodeList/3/DeviceList/0/$ns3::CsmaNetDevice/MacRx ns3::EthernetHeader ( length/type=0x800, source=00:00:00:00:00:08, destination=00:00:00:00:00:04) ns3::Ipv4Header (tos 0x0 DSCP Default ECN Not-ECT ttl 64 id 2 protocol 17 offset (bytes) 0 flags [MF] length: 1500 10.1.2.8 > 10.1.2.4) ns3::UdpHeader (length: 16392 49153 > 9) Payload Fragment [0:1472] ns3::EthernetTrailer (fcs=0)
- 3.37229 /NodeList/0/DeviceList/0/$ns3::CsmaNetDevice/TxQueue/Dequeue ns3::EthernetHeader ( length/type=0x800, source=00:00:00:00:00:01, destination=00:00:00:00:00:05) ns3::Ipv4Header (tos 0x0 DSCP Default ECN Not-ECT ttl 64 id 3 protocol 17 offset (bytes) 0 flags [MF] length: 1500 10.1.2.1 > 10.1.2.5) ns3::UdpHeader (length: 16392 49153 > 9) Payload Fragment [0:1472] ns3::EthernetTrailer (fcs=0)
+ 3.375 /NodeList/0/DeviceList/0/$ns3::CsmaNetDevice/TxQueue/Enqueue ns3::EthernetHeader ( length/type=0x800, source=00:00:00:00:00:01, destination=00:00:00:00:00:05) ns3::Ipv4Header (tos 0x0 DSCP Default ECN Not-ECT ttl 64 id 11 protocol 17 offset (bytes) 0 flags [MF] length: 1500 10.1.2.1 > 10.1.2.5) ns3::UdpHeader (length: 16392 49153 > 9) Payload Fragment [0:1472] ns3::EthernetTrailer (fcs=0)
+ 3.375 /NodeList/1/DeviceList/0/$ns3::CsmaNetDevice/TxQueue/Enqueue ns3::EthernetHeader ( length/type=0x800, source=00:00:00:00:00:02, destination=00:00:00:00:00:06) ns3::Ipv4Header (tos 0x0 DSCP Default ECN Not-ECT ttl 64 id 11 protocol 17 offset (bytes) 0 flags [MF] length: 1500 10.1.2.2 > 10.1.2.6) ns3::UdpHeader (length: 16392 49153 > 9) Payload Fragment [0:1472] ns3::EthernetTrailer (fcs=0)
+ 3.375 /NodeList/6/DeviceList/0/$ns3::CsmaNetDevice/TxQueue/Enqueue ns3::EthernetHeader ( length/type=0x800, source=00:00:00:00:00:07, destination=00:00:00:00:00:03) ns3::Ipv4Header (tos 0x0 DSCP Default ECN Not-ECT ttl 64 id 11 protocol 17 offset (bytes) 0 flags [MF] length: 1500 10.1.2.7 > 10.1.2.3) ns3::UdpHeader (length: 16392 49153 > 9) Payload Fragment [0:1472] ns3::EthernetTrailer (fcs=0)
+ 3.375 /NodeList/7/DeviceList/0/$ns3::CsmaNetDevice/TxQueue/Enqueue ns3::EthernetHeader ( length/type=0x800, source=00:00:00:00:00:08, destination=00:00:00:00:00:04) ns3::Ipv4Header (tos 0x0 DSCP Default ECN Not-ECT ttl 64 id 11 protocol 17 offset (bytes) 0 flags [MF] length: 1500 10.1.2.8 > 10.1.2.4) ns3::UdpHeader (length: 16392 49153 > 9) Payload Fragment [0:1472] ns3::EthernetTrailer (fcs=0)